 *******************************************************************************
 **                                                                           **
 **                              MOPAC v23.1.2                                **
 **                                                                           **
 *******************************************************************************
 **          Digital Object Identifier (DOI): 10.5281/zenodo.6511958          **
 **    Visit the DOI location for information on how to cite this program.    **
 *******************************************************************************

                              AM1 CALCULATION RESULTS

 *******************************************************************************
 *  CALCULATION DONE: (MAX THREADS = 8)              Tue Apr  8 13:48:16 2025  *
 *  AM1        - The AM1 Hamiltonian to be used
 *  RESIDUES   - DETERMINE THE SEQUENCE OF RESIDUES
 *  T=         - A TIME OF 172800.0 SECONDS REQUESTED
 *  DUMP=N     - RESTART FILE WRITTEN EVERY 7200.0 SECONDS REQUESTED
 *  HTML       - WRITE HTML SCRIPT TO READ PDB FILE USING JSMOL
 *******************************************************************************
AM1 html


   ATOM   CHEMICAL          X               Y               Z
  NUMBER   SYMBOL      (ANGSTROMS)     (ANGSTROMS)     (ANGSTROMS)
 
     1       C          0.95906000  *  -0.04550000  *  -0.07908000  *
     2       C          2.47906000  *  -0.04550000  *  -0.07908000  *
     3       C          2.98572000  *   0.73504000  *   1.12277000  *
     4       H          0.60239000  *  -0.59496000  *  -0.92512000  *
     5       H          0.60239000  *   0.96192000  *  -0.13191000  *
     6       H          0.60239000  *  -0.50346000  *   0.81978000  *
     7       H          2.83572000  *   0.41247000  *  -0.97794000  *
     8       H          2.83573000  *  -1.05292000  *  -0.02626000  *
     9       H          2.62905000  *   1.74246000  *   1.06995000  *
    10       H          4.05572000  *   0.73505000  *   1.12278000  *
    11       H          2.62905000  *   0.27708000  *   2.02164000  *
 


          CARTESIAN COORDINATES 

    NO.       ATOM           X           Y           Z

     1         C          0.9591     -0.0455     -0.0791
     2         C          2.4791     -0.0455     -0.0791
     3         C          2.9857      0.7350      1.1228
     4         H          0.6024     -0.5950     -0.9251
     5         H          0.6024      0.9619     -0.1319
     6         H          0.6024     -0.5035      0.8198
     7         H          2.8357      0.4125     -0.9779
     8         H          2.8357     -1.0529     -0.0263
     9         H          2.6291      1.7425      1.0699
    10         H          4.0557      0.7351      1.1228
    11         H          2.6291      0.2771      2.0216

  H: (AM1): M.J.S. DEWAR ET AL, J. AM. CHEM. SOC. 107 3902-3909 (1985)
  C: (AM1): M.J.S. DEWAR ET AL, J. AM. CHEM. SOC. 107 3902-3909 (1985)

           Empirical Formula: C3 H8  =    11 atoms



      MOLECULAR POINT GROUP   :   C2v 


      RHF CALCULATION, NO. OF DOUBLY OCCUPIED LEVELS = 10


          Geometry optimization using EF

          DIAGONAL MATRIX USED AS START HESSIAN

 CYCLE:     1 TIME:   0.008 TIME LEFT:  2.00D  GRAD.:   143.246 HEAT: -16.23124
 CYCLE:     2 TIME:   0.004 TIME LEFT:  2.00D  GRAD.:    66.698 HEAT: -22.48439
 CYCLE:     3 TIME:   0.000 TIME LEFT:  2.00D  GRAD.:    47.598 HEAT: -23.46359
 CYCLE:     4 TIME:   0.004 TIME LEFT:  2.00D  GRAD.:    17.031 HEAT: -24.03456
 CYCLE:     5 TIME:   0.004 TIME LEFT:  2.00D  GRAD.:    11.014 HEAT: -24.13324
 CYCLE:     6 TIME:   0.000 TIME LEFT:  2.00D  GRAD.:     9.158 HEAT: -24.17079
 CYCLE:     7 TIME:   0.004 TIME LEFT:  2.00D  GRAD.:    10.921 HEAT: -24.19205
 CYCLE:     8 TIME:   0.000 TIME LEFT:  2.00D  GRAD.:     9.549 HEAT: -24.22134
 CYCLE:     9 TIME:   0.000 TIME LEFT:  2.00D  GRAD.:     5.872 HEAT: -24.24726
 CYCLE:    10 TIME:   0.004 TIME LEFT:  2.00D  GRAD.:     3.420 HEAT: -24.25835
 CYCLE:    11 TIME:   0.000 TIME LEFT:  2.00D  GRAD.:     3.880 HEAT: -24.26547
 CYCLE:    12 TIME:   0.000 TIME LEFT:  2.00D  GRAD.:     4.220 HEAT: -24.27482
 CYCLE:    13 TIME:   0.004 TIME LEFT:  2.00D  GRAD.:     3.451 HEAT: -24.28063
 CYCLE:    14 TIME:   0.000 TIME LEFT:  2.00D  GRAD.:     1.671 HEAT: -24.28805
 CYCLE:    15 TIME:   0.004 TIME LEFT:  2.00D  GRAD.:     1.591 HEAT: -24.29331
 CYCLE:    16 TIME:   0.000 TIME LEFT:  2.00D  GRAD.:     1.585 HEAT: -24.29835
 CYCLE:    17 TIME:   0.000 TIME LEFT:  2.00D  GRAD.:     1.359 HEAT: -24.30002
 CYCLE:    18 TIME:   0.004 TIME LEFT:  2.00D  GRAD.:     0.698 HEAT: -24.30116

     GRADIENT =  0.69832 IS LESS THAN CUTOFF =  1.00000



 -------------------------------------------------------------------------------
 AM1 html




     GEOMETRY OPTIMISED USING EIGENVECTOR FOLLOWING (EF).     
     SCF FIELD WAS ACHIEVED                                   


                              AM1 CALCULATION
                                                       MOPAC v23.1.2 Windows
                                                       Tue Apr  8 13:48:16 2025




          FINAL HEAT OF FORMATION =        -24.30116 KCAL/MOL =    -101.67607 KJ/MOL


          COSMO AREA              =         96.00 SQUARE ANGSTROMS
          COSMO VOLUME            =         79.13 CUBIC ANGSTROMS

          GRADIENT NORM           =          0.69832          =       0.21055 PER ATOM
          IONIZATION POTENTIAL    =         11.323979 EV
          HOMO LUMO ENERGIES (EV) =        -11.324  3.919
          NO. OF FILLED LEVELS    =         10
          MOLECULAR WEIGHT        =         44.0962         POINT GROUP:  C2v 

          MOLECULAR DIMENSIONS (Angstroms)

            Atom       Atom       Distance
            H    10    H     4     4.31461
            H     9    H     8     2.82236
            H     7    H    11     2.77563


          SCF CALCULATIONS        =         25
 
          WALL-CLOCK TIME         =      0.039 SECONDS
          COMPUTATION TIME        =      0.125 SECONDS




   ATOM                 CHEMICAL                   X               Y               Z
  NUMBER                 SYMBOL               (ANGSTROMS)     (ANGSTROMS)     (ANGSTROMS)
 
     1       C(HETATM    1  C1  HET A   1)    0.95826981  *  -0.05134746  *  -0.08889238  *
     2       C(HETATM    2  C2  HET A   1)    2.46511179  *  -0.03534869  *  -0.06286392  *
     3       C(HETATM    3  C3  HET A   1)    2.99587311  *   0.73337057  *   1.12013470  *
     4       H(HETATM    4 1H1  HET A   1)    0.58844587  *  -0.62506567  *  -0.97256720  *
     5       H(HETATM    5 2H1  HET A   1)    0.55595583  *   0.98875281  *  -0.14924172  *
     6       H(HETATM    6 3H1  HET A   1)    0.55512962  *  -0.52970329  *   0.83632028  *
     7       H(HETATM    7 1H2  HET A   1)    2.85258102  *   0.42331676  *  -1.01119476  *
     8       H(HETATM    8 2H2  HET A   1)    2.85153023  *  -1.08860878  *  -0.02748255  *
     9       H(HETATM    9 1H3  HET A   1)    2.64384548  *   1.79301070  *   1.09262534  *
    10       H(HETATM   10 2H3  HET A   1)    4.11222920  *   0.73267786  *   1.11436845  *
    11       H(HETATM   11 3H3  HET A   1)    2.64855154  *   0.27416540  *   2.07708333  *

                             CARTESIAN COORDINATES

   1    C        0.958269809    -0.051347458    -0.088892381
   2    C        2.465111794    -0.035348694    -0.062863918
   3    C        2.995873107     0.733370567     1.120134699
   4    H        0.588445870    -0.625065674    -0.972567197
   5    H        0.555955825     0.988752810    -0.149241719
   6    H        0.555129624    -0.529703289     0.836320284
   7    H        2.852581020     0.423316760    -1.011194759
   8    H        2.851530227    -1.088608780    -0.027482547
   9    H        2.643845476     1.793010696     1.092625336
  10    H        4.112229205     0.732677860     1.114368453
  11    H        2.648551539     0.274165405     2.077083333


           Empirical Formula: C3 H8  =    11 atoms



      MOLECULAR POINT GROUP   :   C2v 


                  EIGENVALUES  
 -35.22878 -27.69100 -21.91015 -15.71024 -15.03639 -13.82278 -12.90781 -11.98920
 -11.88757 -11.32398   3.91921   4.05136   4.32811   4.60230   4.81300   4.91773
   4.98732   5.18754   5.21718   5.28930


              NET ATOMIC CHARGES AND DIPOLE CONTRIBUTIONS

  ATOM NO.                 TYPE                        CHARGE      No. of ELECS.   s-Pop       p-Pop       
    1          C(HETATM    1  C1  HET A   1)          -0.210442        4.2104     1.22417     2.98628
    2          C(HETATM    2  C2  HET A   1)          -0.159904        4.1599     1.21337     2.94653
    3          C(HETATM    3  C3  HET A   1)          -0.210621        4.2106     1.22420     2.98642
    4          H(HETATM    4 1H1  HET A   1)           0.071041        0.9290     0.92896
    5          H(HETATM    5 2H1  HET A   1)           0.071630        0.9284     0.92837
    6          H(HETATM    6 3H1  HET A   1)           0.071584        0.9284     0.92842
    7          H(HETATM    7 1H2  HET A   1)           0.076380        0.9236     0.92362
    8          H(HETATM    8 2H2  HET A   1)           0.076336        0.9237     0.92366
    9          H(HETATM    9 1H3  HET A   1)           0.071659        0.9283     0.92834
   10          H(HETATM   10 2H3  HET A   1)           0.070740        0.9293     0.92926
   11          H(HETATM   11 3H3  HET A   1)           0.071597        0.9284     0.92840
 DIPOLE           X         Y         Z       TOTAL
 POINT-CHG.     0.000    -0.002    -0.003     0.003
 HYBRID        -0.002     0.003     0.006     0.007
 SUM           -0.002     0.002     0.003     0.004


          ATOMIC ORBITAL ELECTRON POPULATIONS

                   Atom                  s        px        py        pz   
   C(HETATM    1  C1  HET A   1)   1.22417   0.95538   1.01596   1.01493
   C(HETATM    2  C2  HET A   1)   1.21337   0.95776   1.00449   0.98429
   C(HETATM    3  C3  HET A   1)   1.22420   1.00563   1.00113   0.97967
   H(HETATM    4 1H1  HET A   1)   0.92896
   H(HETATM    5 2H1  HET A   1)   0.92837
   H(HETATM    6 3H1  HET A   1)   0.92842
   H(HETATM    7 1H2  HET A   1)   0.92362
   H(HETATM    8 2H2  HET A   1)   0.92366
   H(HETATM    9 1H3  HET A   1)   0.92834
   H(HETATM   10 2H3  HET A   1)   0.92926
   H(HETATM   11 3H3  HET A   1)   0.92840

 **********************
 *                    *
 * JOB ENDED NORMALLY *
 *                    *
 **********************



 TOTAL JOB TIME:             0.05 SECONDS

 == MOPAC DONE ==
