 *******************************************************************************
 **                                                                           **
 **                              MOPAC v23.1.2                                **
 **                                                                           **
 *******************************************************************************
 **          Digital Object Identifier (DOI): 10.5281/zenodo.6511958          **
 **    Visit the DOI location for information on how to cite this program.    **
 *******************************************************************************

                              AM1 CALCULATION RESULTS

 *******************************************************************************
 *  CALCULATION DONE: (MAX THREADS = 16)             Tue Apr  8 14:50:53 2025  *
 *  AM1        - The AM1 Hamiltonian to be used
 *  RESIDUES   - DETERMINE THE SEQUENCE OF RESIDUES
 *  IRC=N      - INTRINSIC REACTION COORDINATE  1 DEFINED
 *  DRC        - DYNAMIC REACTION COORDINATE CALCULATION
 *  T=         - A TIME OF 172800.0 SECONDS REQUESTED
 *  DUMP=N     - RESTART FILE WRITTEN EVERY 7200.0 SECONDS REQUESTED
 *  BIGCYCLES  - DO 1 BIG STEPS
 *  HTML       - WRITE HTML SCRIPT TO GENERATE ANIMATION USING JSMOL
 *             - TO DISPLAY IN PDB FORMAT, ADD "PDBOUT"
 *  T-PRIOR    - TIME TAKES PRIORITY IN DRC
 *******************************************************************************
AM1 irc=1* DRC BIGCYCLES=1 html t-priority=0.5
 C:\Users\48796\PycharmProjects\pythonProject\sem4\Cezary\projekt\programming_project_WCh_2025\mopac_portal\media//3/molecule.out

   ATOM   CHEMICAL          X               Y               Z
  NUMBER   SYMBOL      (ANGSTROMS)     (ANGSTROMS)     (ANGSTROMS)
 
     1       C          1.08260000  *  -0.04967000  *  -0.02437000  *
     2       H          2.19428000  *  -0.04975000  *  -0.02443000  *
     3       H          0.71347000  *  -0.45640000  *  -0.99070000  *
     4       H          0.71361000  *   0.99052000  *   0.10672000  *
     5       H          0.71351000  *  -0.68402000  *   0.81043000  *
 


          CARTESIAN COORDINATES 

    NO.       ATOM           X           Y           Z

     1         C          1.0826     -0.0497     -0.0244
     2         H          2.1943     -0.0498     -0.0244
     3         H          0.7135     -0.4564     -0.9907
     4         H          0.7136      0.9905      0.1067
     5         H          0.7135     -0.6840      0.8104

  H: (AM1): M.J.S. DEWAR ET AL, J. AM. CHEM. SOC. 107 3902-3909 (1985)
  C: (AM1): M.J.S. DEWAR ET AL, J. AM. CHEM. SOC. 107 3902-3909 (1985)

           Empirical Formula: C H4  =     5 atoms



      MOLECULAR POINT GROUP   :   Td  


      RHF CALCULATION, NO. OF DOUBLY OCCUPIED LEVELS = 4



          HEAT OF FORMATION =      -8.789616 KCALS/MOLE


          GRADIENT NORM =   0.67819

          MOLECULAR WEIGHT =   16.04


          ESTIMATED TIME TO COMPLETE CALCULATION =        0.12 SECONDS

    FOR POINT-GROUP Td   THERE ARE  24 UNIQUE SYMMETRY FUNCTIONS.

 STEP:   1 TIME =     0.00 SECS, INTEGRAL =      0.00 TIME LEFT: 172800.00
 STEP:   2 TIME =     0.00 SECS, INTEGRAL =      0.00 TIME LEFT: 172800.00
 STEP:   3 TIME =     0.00 SECS, INTEGRAL =      0.00 TIME LEFT: 172799.99
 STEP:   4 TIME =     0.00 SECS, INTEGRAL =      0.00 TIME LEFT: 172799.99
 STEP:   5 TIME =     0.00 SECS, INTEGRAL =      0.00 TIME LEFT: 172799.99
 STEP:   6 TIME =     0.00 SECS, INTEGRAL =      0.00 TIME LEFT: 172799.99
 STEP:   7                       INTEGRAL =      0.00 TIME LEFT: 172799.99
 STEP:   8                       INTEGRAL =      0.00 TIME LEFT: 172799.99
 STEP:   9                       INTEGRAL =      0.00 TIME LEFT: 172799.99
 STEP:  10                       INTEGRAL =      0.00 TIME LEFT: 172799.99
 STEP:  11                       INTEGRAL =      0.00 TIME LEFT: 172799.99
 STEP:  12                       INTEGRAL =      0.00 TIME LEFT: 172799.99
 STEP:  13                       INTEGRAL =      0.00 TIME LEFT: 172799.99
 STEP:  14                       INTEGRAL =      0.00 TIME LEFT: 172799.99
 STEP:  15                       INTEGRAL =      0.00 TIME LEFT: 172799.99
           INITIAL VELOCITY IN DRC (Angstroms/Femtosecond)
        -0.00228        -0.01853        -0.06136
        -0.00122         0.08665         0.28663
         0.03928         0.00621         0.28704
         0.07967         0.18426         0.11868
        -0.09052        -0.05625         0.03885
 BY DEFAULT, ONE QUANTUM OF ENERGY, EQUIVALENT TO  1375.710 CM(-1)
 WILL BE USED TO START THE DRC
 THIS REPRESENTS AN ENERGY OF   3.93 KCALS/MOLE

 TIME PRIORITY, INTERVAL = 0.50 FEMTOSECONDS



 FEMTOSECONDS  POINT  POTENTIAL + KINETIC  =   TOTAL     ERROR    REF%   MOVEMENT
     0.000       1    -8.78959    3.93248    -4.85711   0.00000     1   %  0.0000
     0.500       3    -8.72378    3.86669    -4.85708   0.00003     2   %  0.0530
     1.000       3    -8.52853    3.67161    -4.85692   0.00019     3   %  0.1051
     1.500       8    -8.21872    3.36147    -4.85725  -0.00013     4   %  0.1553
     2.000      11    -7.81202    2.95469    -4.85734  -0.00022     5   %  0.2029
     2.500      13    -7.33683    2.47938    -4.85745  -0.00033     6   %  0.2471
     3.000      15    -6.82588    1.96829    -4.85760  -0.00048     7   %  0.2871
     3.500      17    -6.31482    1.45703    -4.85778  -0.00067     8   %  0.3222
     4.000      19    -5.83982    0.98185    -4.85797  -0.00085     9   %  0.3518
     4.500      20    -5.43349    0.57537    -4.85812  -0.00100    10   %  0.3754
     5.000      22    -5.12461    0.26639    -4.85822  -0.00110    11   %  0.3926
     5.500      23    -4.93361    0.07531    -4.85831  -0.00119    12   %  0.4031
     6.000      24    -4.87309    0.01514    -4.85796  -0.00084    13   %  0.4067
     6.500      25    -4.94670    0.09208    -4.85463   0.00249    14   %  0.4033
     7.000      27    -5.15060    0.29223    -4.85837  -0.00125    15   %  0.3929
     7.500      28    -5.46641    0.61235    -4.85405   0.00306    16   %  0.3758
     8.000      29    -5.87514    1.01872    -4.85642   0.00070    17   %  0.3523
     8.500      30    -6.34848    1.49224    -4.85624   0.00088    18   %  0.3229
     9.000      32    -6.85616    2.00009    -4.85607   0.00105    19   %  0.2879
     9.500      34    -7.36276    2.50653    -4.85623   0.00089    20   %  0.2480
    10.000      36    -7.83350    2.97713    -4.85637   0.00076    21   %  0.2039
    10.500      38    -8.23493    3.37843    -4.85650   0.00062    22   %  0.1564
    11.000      40    -8.53792    3.68130    -4.85662   0.00050    23   %  0.1065
    11.500      42    -8.72056    3.86383    -4.85673   0.00040    24   %  0.0560
    12.000      45    -8.77033    3.91351    -4.85682   0.00030    25   %  0.0284
    12.500      47    -8.68531    3.82840    -4.85691   0.00022    26   %  0.0605
    13.000      50    -8.47422    3.61723    -4.85699   0.00014    27   %  0.1063
    13.500      52    -8.15510    3.29804    -4.85706   0.00007    28   %  0.1554
    14.000      54    -7.75334    2.89620    -4.85714  -0.00001    29   %  0.2022
    14.500      56    -7.29826    2.44105    -4.85721  -0.00008    30   %  0.2456
    15.000      58    -6.82053    1.96325    -4.85728  -0.00014    31   %  0.2849
    15.500      60    -6.34980    1.49246    -4.85734  -0.00021    32   %  0.3194
    16.000      62    -5.91319    1.05579    -4.85740  -0.00026    33   %  0.3487
    16.500      63    -5.53378    0.67632    -4.85746  -0.00032    34   %  0.3723
    17.000      65    -5.23163    0.37409    -4.85754  -0.00041    35   %  0.3898
    17.500      66    -5.02332    0.16567    -4.85764  -0.00051    36   %  0.4011
    18.000      67    -4.92251    0.06484    -4.85767  -0.00053    37   %  0.4058
    18.500      69    -4.93865    0.08157    -4.85708   0.00006    38   %  0.4040
    19.000      70    -5.07693    0.22004    -4.85688   0.00025    39   %  0.3956
    19.500      71    -5.33446    0.47815    -4.85631   0.00082    40   %  0.3806
    20.000      72    -5.69896    0.84391    -4.85505   0.00208    41   %  0.3594
    20.500      73    -6.14719    1.29266    -4.85452   0.00261    42   %  0.3322
    21.000      74    -6.64789    1.79177    -4.85612   0.00102    43   %  0.2995
    21.500      76    -7.16284    2.30625    -4.85659   0.00055    44   %  0.2619
    22.000      79    -7.65041    2.79359    -4.85683   0.00031    45   %  0.2201
    22.500      81    -8.07214    3.21519    -4.85696   0.00018    46   %  0.1750
    23.000      84    -8.39745    3.54042    -4.85703   0.00011    47   %  0.1276
    23.500      87    -8.60588    3.74879    -4.85709   0.00005    48   %  0.0796
    24.000      90    -8.68875    3.83163    -4.85712   0.00003    49   %  0.0368


           INITIAL VELOCITY IN DRC (Angstroms/Femtosecond)
         0.00228         0.01853         0.06136
         0.00122        -0.08665        -0.28663
        -0.03928        -0.00621        -0.28704
        -0.07967        -0.18426        -0.11868
         0.09052         0.05625        -0.03885
 BY DEFAULT, ONE QUANTUM OF ENERGY, EQUIVALENT TO  1375.710 CM(-1)
 WILL BE USED TO START THE DRC
 THIS REPRESENTS AN ENERGY OF   3.93 KCALS/MOLE

 TIME PRIORITY, INTERVAL = 0.50 FEMTOSECONDS



 FEMTOSECONDS  POINT  POTENTIAL + KINETIC  =   TOTAL     ERROR    REF%   MOVEMENT
     0.000       1    -8.78962    3.93248    -4.85714   0.00000     1   %  0.0000
     0.500       3    -8.72298    3.86608    -4.85690   0.00024     2   %  0.0530
     1.000       3    -8.52856    3.67182    -4.85674   0.00040     3   %  0.1050
     1.500       8    -8.22258    3.36557    -4.85701   0.00013     4   %  0.1552
     2.000      10    -7.82327    2.96616    -4.85710   0.00004     5   %  0.2028
     2.500      12    -7.35839    2.50116    -4.85723  -0.00009     6   %  0.2470
     3.000      14    -6.85912    2.00172    -4.85740  -0.00026     7   %  0.2870
     3.500      16    -6.35894    1.50134    -4.85760  -0.00046     8   %  0.3223
     4.000      18    -5.89174    1.03394    -4.85780  -0.00065     9   %  0.3521
     4.500      19    -5.48701    0.62905    -4.85796  -0.00082    10   %  0.3760
     5.000      20    -5.17178    0.31372    -4.85806  -0.00092    11   %  0.3937
     5.500      22    -4.96445    0.10634    -4.85812  -0.00097    12   %  0.4049
     6.000      23    -4.87761    0.01987    -4.85774  -0.00059    13   %  0.4094
     6.500      24    -4.91599    0.05963    -4.85637   0.00078    14   %  0.4070
     7.000      25    -5.07659    0.21915    -4.85743  -0.00029    15   %  0.3980
     7.500      26    -5.34778    0.49250    -4.85527   0.00187    16   %  0.3824
     8.000      27    -5.71393    0.85853    -4.85540   0.00175    17   %  0.3605
     8.500      28    -6.15175    1.29680    -4.85494   0.00220    18   %  0.3327
     9.000      29    -6.63537    1.77946    -4.85591   0.00124    19   %  0.2995
     9.500      31    -7.13559    2.27933    -4.85626   0.00088    20   %  0.2613
    10.000      33    -7.61815    2.76159    -4.85657   0.00058    21   %  0.2189
    10.500      35    -8.05017    3.19340    -4.85677   0.00038    22   %  0.1729
    11.000      38    -8.40045    3.54354    -4.85691   0.00024    23   %  0.1242
    11.500      40    -8.64281    3.78580    -4.85701   0.00014    24   %  0.0741
    12.000      43    -8.75879    3.90172    -4.85708   0.00007    25   %  0.0349
    12.500      46    -8.73998    3.88284    -4.85714   0.00002    26   %  0.0408
    13.000      49    -8.58889    3.73170    -4.85719  -0.00003    27   %  0.0868
    13.500      52    -8.31854    3.46130    -4.85724  -0.00009    28   %  0.1362
    14.000      54    -7.95050    3.09319    -4.85731  -0.00015    29   %  0.1837
    14.500      57    -7.51277    2.65537    -4.85739  -0.00023    30   %  0.2283
    15.000      59    -7.03588    2.17838    -4.85750  -0.00034    31   %  0.2690
    15.500      61    -6.55145    1.69384    -4.85761  -0.00045    32   %  0.3053
    16.000      62    -6.08877    1.23105    -4.85772  -0.00056    33   %  0.3365
    16.500      64    -5.67446    0.81662    -4.85784  -0.00068    34   %  0.3621
    17.000      65    -5.33280    0.47484    -4.85796  -0.00080    35   %  0.3817
    17.500      67    -5.08298    0.22488    -4.85810  -0.00094    36   %  0.3950
    18.000      68    -4.94317    0.08497    -4.85820  -0.00104    37   %  0.4017
    18.500      69    -4.92607    0.06871    -4.85736  -0.00020    38   %  0.4016
    19.000      71    -5.03946    0.18275    -4.85671   0.00045    39   %  0.3945
    19.500      72    -5.28262    0.42630    -4.85632   0.00085    40   %  0.3806
    20.000      73    -5.64296    0.78815    -4.85482   0.00235    41   %  0.3600
    20.500      74    -6.09651    1.24201    -4.85450   0.00266    42   %  0.3331
    21.000      75    -6.60862    1.75347    -4.85515   0.00201    43   %  0.3002
    21.500      77    -7.13718    2.28128    -4.85590   0.00126    44   %  0.2622
    22.000      79    -7.63741    2.78108    -4.85632   0.00084    45   %  0.2198
    22.500      81    -8.06866    3.21209    -4.85657   0.00059    46   %  0.1738
    23.000      83    -8.39889    3.54216    -4.85674   0.00043    47   %  0.1255
    23.500      86    -8.60818    3.75133    -4.85685   0.00031    48   %  0.0766
    24.000      88    -8.68924    3.83230    -4.85694   0.00023    49   %  0.0332



 **********************
 *                    *
 * JOB ENDED NORMALLY *
 *                    *
 **********************



 TOTAL JOB TIME:             0.22 SECONDS

 == MOPAC DONE ==
