 *******************************************************************************
 **                                                                           **
 **                              MOPAC v23.1.2                                **
 **                                                                           **
 *******************************************************************************
 **          Digital Object Identifier (DOI): 10.5281/zenodo.6511958          **
 **    Visit the DOI location for information on how to cite this program.    **
 *******************************************************************************

                              AM1 CALCULATION RESULTS

 *******************************************************************************
 *  CALCULATION DONE: (MAX THREADS = 16)             Tue Apr  8 14:50:53 2025  *
 *  AM1        - The AM1 Hamiltonian to be used
 *  RESIDUES   - DETERMINE THE SEQUENCE OF RESIDUES
 *  IRC=N      - INTRINSIC REACTION COORDINATE  2 DEFINED
 *  DRC        - DYNAMIC REACTION COORDINATE CALCULATION
 *  T=         - A TIME OF 172800.0 SECONDS REQUESTED
 *  DUMP=N     - RESTART FILE WRITTEN EVERY 7200.0 SECONDS REQUESTED
 *  BIGCYCLES  - DO 1 BIG STEPS
 *  HTML       - WRITE HTML SCRIPT TO GENERATE ANIMATION USING JSMOL
 *             - TO DISPLAY IN PDB FORMAT, ADD "PDBOUT"
 *  T-PRIOR    - TIME TAKES PRIORITY IN DRC
 *******************************************************************************
AM1 irc=2* DRC BIGCYCLES=1 html t-priority=0.5
 C:\Users\48796\PycharmProjects\pythonProject\sem4\Cezary\projekt\programming_project_WCh_2025\mopac_portal\media//3/molecule.out

   ATOM   CHEMICAL          X               Y               Z
  NUMBER   SYMBOL      (ANGSTROMS)     (ANGSTROMS)     (ANGSTROMS)
 
     1       C          1.08260000  *  -0.04967000  *  -0.02437000  *
     2       H          2.19428000  *  -0.04975000  *  -0.02443000  *
     3       H          0.71347000  *  -0.45640000  *  -0.99070000  *
     4       H          0.71361000  *   0.99052000  *   0.10672000  *
     5       H          0.71351000  *  -0.68402000  *   0.81043000  *
 


          CARTESIAN COORDINATES 

    NO.       ATOM           X           Y           Z

     1         C          1.0826     -0.0497     -0.0244
     2         H          2.1943     -0.0498     -0.0244
     3         H          0.7135     -0.4564     -0.9907
     4         H          0.7136      0.9905      0.1067
     5         H          0.7135     -0.6840      0.8104

  H: (AM1): M.J.S. DEWAR ET AL, J. AM. CHEM. SOC. 107 3902-3909 (1985)
  C: (AM1): M.J.S. DEWAR ET AL, J. AM. CHEM. SOC. 107 3902-3909 (1985)

           Empirical Formula: C H4  =     5 atoms



      MOLECULAR POINT GROUP   :   Td  


      RHF CALCULATION, NO. OF DOUBLY OCCUPIED LEVELS = 4



          HEAT OF FORMATION =      -8.789616 KCALS/MOLE


          GRADIENT NORM =   0.67819

          MOLECULAR WEIGHT =   16.04


          ESTIMATED TIME TO COMPLETE CALCULATION =        0.12 SECONDS

    FOR POINT-GROUP Td   THERE ARE  24 UNIQUE SYMMETRY FUNCTIONS.

 STEP:   1 TIME =     0.00 SECS, INTEGRAL =      0.00 TIME LEFT: 172800.00
 STEP:   2 TIME =     0.00 SECS, INTEGRAL =      0.00 TIME LEFT: 172800.00
 STEP:   3 TIME =     0.00 SECS, INTEGRAL =      0.00 TIME LEFT: 172799.99
 STEP:   4 TIME =     0.00 SECS, INTEGRAL =      0.00 TIME LEFT: 172799.99
 STEP:   5 TIME =     0.00 SECS, INTEGRAL =      0.00 TIME LEFT: 172799.99
 STEP:   6 TIME =     0.00 SECS, INTEGRAL =      0.00 TIME LEFT: 172799.99
 STEP:   7                       INTEGRAL =      0.00 TIME LEFT: 172799.99
 STEP:   8                       INTEGRAL =      0.00 TIME LEFT: 172799.99
 STEP:   9                       INTEGRAL =      0.00 TIME LEFT: 172799.99
 STEP:  10                       INTEGRAL =      0.00 TIME LEFT: 172799.99
 STEP:  11                       INTEGRAL =      0.00 TIME LEFT: 172799.99
 STEP:  12                       INTEGRAL =      0.00 TIME LEFT: 172799.99
 STEP:  13                       INTEGRAL =      0.00 TIME LEFT: 172799.99
 STEP:  14                       INTEGRAL =      0.00 TIME LEFT: 172799.99
 STEP:  15                       INTEGRAL =      0.00 TIME LEFT: 172799.99
           INITIAL VELOCITY IN DRC (Angstroms/Femtosecond)
        -0.00228        -0.01853        -0.06136
        -0.00122         0.08665         0.28663
         0.03928         0.00621         0.28704
         0.07967         0.18426         0.11868
        -0.09052        -0.05625         0.03885
 BY DEFAULT, ONE QUANTUM OF ENERGY, EQUIVALENT TO  1375.710 CM(-1)
 WILL BE USED TO START THE DRC
 THIS REPRESENTS AN ENERGY OF   3.93 KCALS/MOLE

 TIME PRIORITY, INTERVAL = 0.50 FEMTOSECONDS



 FEMTOSECONDS  POINT  POTENTIAL + KINETIC  =   TOTAL     ERROR    REF%   MOVEMENT
     0.000       1    -8.78959    3.93248    -4.85711   0.00000     1   %  0.0000
     0.500       3    -8.73188    3.87490    -4.85697   0.00014     2   %  0.0536
     1.000       3    -8.54472    3.68795    -4.85677   0.00034     3   %  0.1063
     1.500       8    -8.24260    3.38548    -4.85713  -0.00001     4   %  0.1571
     2.000      11    -7.84302    2.98580    -4.85722  -0.00010     5   %  0.2054
     2.500      13    -7.37359    2.51626    -4.85733  -0.00022     6   %  0.2503
     3.000      15    -6.86656    2.00908    -4.85748  -0.00037     7   %  0.2910
     3.500      17    -6.35699    1.49932    -4.85767  -0.00055     8   %  0.3268
     4.000      18    -5.88014    1.02229    -4.85786  -0.00074     9   %  0.3571
     4.500      20    -5.46835    0.61034    -4.85801  -0.00089    10   %  0.3814
     5.000      21    -5.15065    0.29255    -4.85810  -0.00098    11   %  0.3992
     5.500      23    -4.94721    0.08903    -4.85818  -0.00106    12   %  0.4103
     6.000      24    -4.87140    0.01370    -4.85770  -0.00058    13   %  0.4145
     6.500      25    -4.92811    0.07203    -4.85608   0.00103    14   %  0.4117
     7.000      26    -5.11293    0.25517    -4.85777  -0.00065    15   %  0.4020
     7.500      27    -5.41150    0.55690    -4.85461   0.00251    16   %  0.3854
     8.000      28    -5.80579    0.94999    -4.85581   0.00131    17   %  0.3624
     8.500      30    -6.26941    1.41333    -4.85607   0.00104    18   %  0.3333
     9.000      31    -6.77104    1.91483    -4.85621   0.00091    19   %  0.2986
     9.500      33    -7.27885    2.42240    -4.85646   0.00066    20   %  0.2589
    10.000      35    -7.75713    2.90048    -4.85664   0.00048    21   %  0.2148
    10.500      37    -8.17225    3.31545    -4.85680   0.00032    22   %  0.1672
    11.000      39    -8.49419    3.63726    -4.85693   0.00020    23   %  0.1169
    11.500      42    -8.69958    3.84255    -4.85703   0.00010    24   %  0.0649
    12.000      44    -8.77365    3.91653    -4.85712   0.00001    25   %  0.0201
    12.500      47    -8.71237    3.85518    -4.85719  -0.00006    26   %  0.0451
    13.000      49    -8.52252    3.66527    -4.85725  -0.00012    27   %  0.0956
    13.500      52    -8.22028    3.36296    -4.85732  -0.00019    28   %  0.1461
    14.000      54    -7.82993    2.97253    -4.85740  -0.00027    29   %  0.1940
    14.500      56    -7.38025    2.52278    -4.85747  -0.00034    30   %  0.2386
    15.000      58    -6.90192    2.04437    -4.85755  -0.00042    31   %  0.2790
    15.500      60    -6.42512    1.56750    -4.85762  -0.00049    32   %  0.3148
    16.000      62    -5.97794    1.12025    -4.85769  -0.00056    33   %  0.3452
    16.500      63    -5.58499    0.72725    -4.85774  -0.00061    34   %  0.3699
    17.000      65    -5.26714    0.40934    -4.85780  -0.00066    35   %  0.3886
    17.500      66    -5.04250    0.18465    -4.85785  -0.00072    36   %  0.4008
    18.000      67    -4.92580    0.06797    -4.85783  -0.00070    37   %  0.4064
    18.500      69    -4.92749    0.07042    -4.85707   0.00007    38   %  0.4053
    19.000      70    -5.05368    0.19690    -4.85678   0.00035    39   %  0.3974
    19.500      71    -5.30212    0.44591    -4.85621   0.00093    40   %  0.3829
    20.000      72    -5.66076    0.80594    -4.85482   0.00231    41   %  0.3618
    20.500      73    -6.10669    1.25237    -4.85433   0.00281    42   %  0.3346
    21.000      74    -6.60868    1.75293    -4.85575   0.00138    43   %  0.3018
    21.500      76    -7.12697    2.27058    -4.85639   0.00075    44   %  0.2639
    22.000      78    -7.61974    2.76305    -4.85669   0.00045    45   %  0.2217
    22.500      81    -8.04839    3.19154    -4.85685   0.00028    46   %  0.1760
    23.000      84    -8.38128    3.52433    -4.85695   0.00019    47   %  0.1280
    23.500      87    -8.59775    3.74074    -4.85701   0.00013    48   %  0.0792
    24.000      89    -8.68876    3.83171    -4.85705   0.00010    49   %  0.0355


           INITIAL VELOCITY IN DRC (Angstroms/Femtosecond)
         0.00228         0.01853         0.06136
         0.00122        -0.08665        -0.28663
        -0.03928        -0.00621        -0.28704
        -0.07967        -0.18426        -0.11868
         0.09052         0.05625        -0.03885
 BY DEFAULT, ONE QUANTUM OF ENERGY, EQUIVALENT TO  1375.710 CM(-1)
 WILL BE USED TO START THE DRC
 THIS REPRESENTS AN ENERGY OF   3.93 KCALS/MOLE

 TIME PRIORITY, INTERVAL = 0.50 FEMTOSECONDS



 FEMTOSECONDS  POINT  POTENTIAL + KINETIC  =   TOTAL     ERROR    REF%   MOVEMENT
     0.000       1    -8.78962    3.93248    -4.85714   0.00000     1   %  0.0000
     0.500       3    -8.71502    3.85790    -4.85712   0.00002     2   %  0.0535
     1.000       3    -8.51294    3.65601    -4.85693   0.00021     3   %  0.1060
     1.500       8    -8.19982    3.34252    -4.85731  -0.00017     4   %  0.1566
     2.000      10    -7.79413    2.93672    -4.85742  -0.00028     5   %  0.2046
     2.500      13    -7.32397    2.46642    -4.85755  -0.00041     6   %  0.2490
     3.000      14    -6.82113    1.96341    -4.85772  -0.00058     7   %  0.2892
     3.500      16    -6.31932    1.46139    -4.85792  -0.00078     8   %  0.3245
     4.000      18    -5.85265    0.99455    -4.85811  -0.00096     9   %  0.3543
     4.500      19    -5.45216    0.59391    -4.85825  -0.00111    10   %  0.3781
     5.000      21    -5.14357    0.28524    -4.85833  -0.00118    11   %  0.3955
     5.500      22    -4.94632    0.08794    -4.85838  -0.00124    12   %  0.4062
     6.000      23    -4.87240    0.01417    -4.85823  -0.00109    13   %  0.4102
     6.500      24    -4.92582    0.07179    -4.85403   0.00312    14   %  0.4072
     7.000      25    -5.10457    0.24306    -4.86151  -0.00437    15   %  0.3973
     7.500      26    -5.39121    0.54067    -4.85054   0.00660    16   %  0.3809
     8.000      27    -5.77442    0.91589    -4.85853  -0.00139    17   %  0.3580
     8.500      29    -6.22555    1.37124    -4.85431   0.00284    18   %  0.3291
     9.000      30    -6.71875    1.86277    -4.85598   0.00116    19   %  0.2947
     9.500      32    -7.22126    2.36499    -4.85627   0.00088    20   %  0.2554
    10.000      34    -7.70012    2.84360    -4.85652   0.00063    21   %  0.2117
    10.500      36    -8.12191    3.26522    -4.85670   0.00045    22   %  0.1645
    11.000      38    -8.45586    3.59903    -4.85683   0.00032    23   %  0.1146
    11.500      41    -8.67728    3.82035    -4.85692   0.00023    24   %  0.0627
    12.000      44    -8.76962    3.91262    -4.85700   0.00015    25   %  0.0214
    12.500      46    -8.72673    3.86967    -4.85706   0.00010    26   %  0.0455
    13.000      49    -8.55320    3.69609    -4.85711   0.00004    27   %  0.0972
    13.500      52    -8.26385    3.40669    -4.85716  -0.00001    28   %  0.1477
    14.000      54    -7.88167    3.02445    -4.85722  -0.00007    29   %  0.1958
    14.500      56    -7.43515    2.57785    -4.85730  -0.00014    30   %  0.2407
    15.000      59    -6.95501    2.09762    -4.85739  -0.00023    31   %  0.2815
    15.500      60    -6.47235    1.61487    -4.85748  -0.00032    32   %  0.3176
    16.000      62    -6.01593    1.15836    -4.85756  -0.00040    33   %  0.3485
    16.500      64    -5.61226    0.75462    -4.85764  -0.00048    34   %  0.3737
    17.000      65    -5.28379    0.42606    -4.85773  -0.00057    35   %  0.3928
    17.500      67    -5.05049    0.19268    -4.85781  -0.00065    36   %  0.4054
    18.000      68    -4.92759    0.06975    -4.85784  -0.00068    37   %  0.4114
    18.500      69    -4.92794    0.07104    -4.85690   0.00026    38   %  0.4104
    19.000      70    -5.05773    0.20046    -4.85728  -0.00012    39   %  0.4026
    19.500      71    -5.31375    0.45804    -4.85572   0.00144    40   %  0.3878
    20.000      72    -5.68360    0.82832    -4.85528   0.00188    41   %  0.3665
    20.500      73    -6.14161    1.28738    -4.85423   0.00293    42   %  0.3388
    21.000      75    -6.65421    1.79847    -4.85574   0.00142    43   %  0.3054
    21.500      77    -7.17840    2.32201    -4.85639   0.00077    44   %  0.2668
    22.000      79    -7.67190    2.81516    -4.85674   0.00043    45   %  0.2239
    22.500      81    -8.09482    3.23788    -4.85694   0.00023    46   %  0.1776
    23.000      83    -8.41638    3.55931    -4.85708   0.00009    47   %  0.1290
    23.500      86    -8.61772    3.76056    -4.85716   0.00000    48   %  0.0798
    24.000      88    -8.69198    3.83475    -4.85722  -0.00006    49   %  0.0367



 **********************
 *                    *
 * JOB ENDED NORMALLY *
 *                    *
 **********************



 TOTAL JOB TIME:             0.20 SECONDS

 == MOPAC DONE ==
