 *******************************************************************************
 **                                                                           **
 **                              MOPAC v23.1.2                                **
 **                                                                           **
 *******************************************************************************
 **          Digital Object Identifier (DOI): 10.5281/zenodo.6511958          **
 **    Visit the DOI location for information on how to cite this program.    **
 *******************************************************************************

                              AM1 CALCULATION RESULTS

 *******************************************************************************
 *  CALCULATION DONE: (MAX THREADS = 16)             Tue Apr  8 14:50:53 2025  *
 *  AM1        - The AM1 Hamiltonian to be used
 *  RESIDUES   - DETERMINE THE SEQUENCE OF RESIDUES
 *  IRC=N      - INTRINSIC REACTION COORDINATE  3 DEFINED
 *  DRC        - DYNAMIC REACTION COORDINATE CALCULATION
 *  T=         - A TIME OF 172800.0 SECONDS REQUESTED
 *  DUMP=N     - RESTART FILE WRITTEN EVERY 7200.0 SECONDS REQUESTED
 *  BIGCYCLES  - DO 1 BIG STEPS
 *  HTML       - WRITE HTML SCRIPT TO GENERATE ANIMATION USING JSMOL
 *             - TO DISPLAY IN PDB FORMAT, ADD "PDBOUT"
 *  T-PRIOR    - TIME TAKES PRIORITY IN DRC
 *******************************************************************************
AM1 irc=3* DRC BIGCYCLES=1 html t-priority=0.5
 C:\Users\48796\PycharmProjects\pythonProject\sem4\Cezary\projekt\programming_project_WCh_2025\mopac_portal\media//3/molecule.out

   ATOM   CHEMICAL          X               Y               Z
  NUMBER   SYMBOL      (ANGSTROMS)     (ANGSTROMS)     (ANGSTROMS)
 
     1       C          1.08260000  *  -0.04967000  *  -0.02437000  *
     2       H          2.19428000  *  -0.04975000  *  -0.02443000  *
     3       H          0.71347000  *  -0.45640000  *  -0.99070000  *
     4       H          0.71361000  *   0.99052000  *   0.10672000  *
     5       H          0.71351000  *  -0.68402000  *   0.81043000  *
 


          CARTESIAN COORDINATES 

    NO.       ATOM           X           Y           Z

     1         C          1.0826     -0.0497     -0.0244
     2         H          2.1943     -0.0498     -0.0244
     3         H          0.7135     -0.4564     -0.9907
     4         H          0.7136      0.9905      0.1067
     5         H          0.7135     -0.6840      0.8104

  H: (AM1): M.J.S. DEWAR ET AL, J. AM. CHEM. SOC. 107 3902-3909 (1985)
  C: (AM1): M.J.S. DEWAR ET AL, J. AM. CHEM. SOC. 107 3902-3909 (1985)

           Empirical Formula: C H4  =     5 atoms



      MOLECULAR POINT GROUP   :   Td  


      RHF CALCULATION, NO. OF DOUBLY OCCUPIED LEVELS = 4



          HEAT OF FORMATION =      -8.789616 KCALS/MOLE


          GRADIENT NORM =   0.67819

          MOLECULAR WEIGHT =   16.04


          ESTIMATED TIME TO COMPLETE CALCULATION =        0.12 SECONDS

    FOR POINT-GROUP Td   THERE ARE  24 UNIQUE SYMMETRY FUNCTIONS.

 STEP:   1 TIME =     0.00 SECS, INTEGRAL =      0.00 TIME LEFT: 172800.00
 STEP:   2 TIME =     0.00 SECS, INTEGRAL =      0.00 TIME LEFT: 172800.00
 STEP:   3 TIME =     0.00 SECS, INTEGRAL =      0.00 TIME LEFT: 172800.00
 STEP:   4 TIME =     0.00 SECS, INTEGRAL =      0.00 TIME LEFT: 172800.00
 STEP:   5 TIME =     0.00 SECS, INTEGRAL =      0.00 TIME LEFT: 172800.00
 STEP:   6 TIME =     0.00 SECS, INTEGRAL =      0.00 TIME LEFT: 172799.99
 STEP:   7                       INTEGRAL =      0.00 TIME LEFT: 172799.99
 STEP:   8                       INTEGRAL =      0.00 TIME LEFT: 172799.99
 STEP:   9                       INTEGRAL =      0.00 TIME LEFT: 172799.99
 STEP:  10                       INTEGRAL =      0.00 TIME LEFT: 172799.99
 STEP:  11                       INTEGRAL =      0.00 TIME LEFT: 172799.99
 STEP:  12                       INTEGRAL =      0.00 TIME LEFT: 172799.99
 STEP:  13                       INTEGRAL =      0.00 TIME LEFT: 172799.99
 STEP:  14                       INTEGRAL =      0.00 TIME LEFT: 172799.99
 STEP:  15                       INTEGRAL =      0.00 TIME LEFT: 172799.99
           INITIAL VELOCITY IN DRC (Angstroms/Femtosecond)
        -0.00228        -0.01853        -0.06136
        -0.00122         0.08665         0.28663
         0.03928         0.00621         0.28704
         0.07967         0.18426         0.11868
        -0.09052        -0.05625         0.03885
 BY DEFAULT, ONE QUANTUM OF ENERGY, EQUIVALENT TO  1375.710 CM(-1)
 WILL BE USED TO START THE DRC
 THIS REPRESENTS AN ENERGY OF   3.93 KCALS/MOLE

 TIME PRIORITY, INTERVAL = 0.50 FEMTOSECONDS



 FEMTOSECONDS  POINT  POTENTIAL + KINETIC  =   TOTAL     ERROR    REF%   MOVEMENT
     0.000       1    -8.78959    3.93248    -4.85711   0.00000     1   %  0.0000
     0.500       3    -8.73082    3.87388    -4.85693   0.00018     2   %  0.0549
     1.000       3    -8.54323    3.68648    -4.85675   0.00036     3   %  0.1089
     1.500       8    -8.24206    3.38498    -4.85707   0.00004     4   %  0.1610
     2.000      11    -7.84509    2.98791    -4.85717  -0.00006     5   %  0.2106
     2.500      13    -7.37970    2.52241    -4.85730  -0.00018     6   %  0.2566
     3.000      15    -6.87774    2.02027    -4.85747  -0.00035     7   %  0.2983
     3.500      16    -6.37279    1.51513    -4.85767  -0.00055     8   %  0.3351
     4.000      18    -5.89895    1.04109    -4.85786  -0.00075     9   %  0.3663
     4.500      19    -5.48875    0.63072    -4.85802  -0.00091    10   %  0.3914
     5.000      21    -5.16782    0.30969    -4.85813  -0.00101    11   %  0.4100
     5.500      22    -4.95792    0.09974    -4.85818  -0.00107    12   %  0.4217
     6.000      23    -4.87159    0.01335    -4.85823  -0.00111    13   %  0.4265
     6.500      25    -4.91407    0.05926    -4.85482   0.00230    14   %  0.4241
     7.000      26    -5.08437    0.22467    -4.85970  -0.00258    15   %  0.4146
     7.500      27    -5.36585    0.51444    -4.85141   0.00571    16   %  0.3983
     8.000      28    -5.74585    0.88717    -4.85868  -0.00156    17   %  0.3753
     8.500      29    -6.19515    1.34183    -4.85333   0.00379    18   %  0.3463
     9.000      30    -6.68899    1.83297    -4.85602   0.00109    19   %  0.3114
     9.500      32    -7.19387    2.33743    -4.85644   0.00068    20   %  0.2714
    10.000      34    -7.67588    2.81919    -4.85669   0.00043    21   %  0.2270
    10.500      36    -8.10179    3.24495    -4.85684   0.00028    22   %  0.1788
    11.000      38    -8.44115    3.58418    -4.85697   0.00016    23   %  0.1278
    11.500      41    -8.66947    3.81242    -4.85705   0.00008    24   %  0.0751
    12.000      44    -8.77011    3.91299    -4.85712   0.00001    25   %  0.0271
    12.500      46    -8.73651    3.87933    -4.85718  -0.00006    26   %  0.0390
    13.000      49    -8.57242    3.71519    -4.85723  -0.00011    27   %  0.0903
    13.500      51    -8.29154    3.43425    -4.85729  -0.00016    28   %  0.1421
    14.000      54    -7.91527    3.05791    -4.85736  -0.00023    29   %  0.1916
    14.500      56    -7.47129    2.61384    -4.85745  -0.00032    30   %  0.2379
    15.000      58    -6.98992    2.13237    -4.85756  -0.00043    31   %  0.2801
    15.500      60    -6.50226    1.64458    -4.85768  -0.00054    32   %  0.3175
    16.000      62    -6.03843    1.18064    -4.85779  -0.00066    33   %  0.3496
    16.500      63    -5.62527    0.76736    -4.85790  -0.00077    34   %  0.3759
    17.000      65    -5.28761    0.42959    -4.85802  -0.00088    35   %  0.3959
    17.500      66    -5.04556    0.18743    -4.85813  -0.00100    36   %  0.4092
    18.000      67    -4.91641    0.05819    -4.85821  -0.00108    37   %  0.4158
    18.500      68    -4.91134    0.05436    -4.85699   0.00015    38   %  0.4152
    19.000      70    -5.03632    0.17942    -4.85689   0.00024    39   %  0.4076
    19.500      71    -5.28737    0.43143    -4.85595   0.00119    40   %  0.3930
    20.000      72    -5.65051    0.79571    -4.85480   0.00233    41   %  0.3715
    20.500      73    -6.10101    1.24691    -4.85410   0.00303    42   %  0.3436
    21.000      74    -6.60670    1.75120    -4.85550   0.00164    43   %  0.3098
    21.500      76    -7.12689    2.27067    -4.85622   0.00091    44   %  0.2708
    22.000      78    -7.62100    2.76451    -4.85650   0.00064    45   %  0.2272
    22.500      80    -8.05119    3.19450    -4.85669   0.00045    46   %  0.1799
    23.000      83    -8.38705    3.53023    -4.85682   0.00032    47   %  0.1301
    23.500      85    -8.60813    3.75122    -4.85691   0.00023    48   %  0.0795
    24.000      88    -8.70487    3.84790    -4.85697   0.00018    49   %  0.0337


           INITIAL VELOCITY IN DRC (Angstroms/Femtosecond)
         0.00228         0.01853         0.06136
         0.00122        -0.08665        -0.28663
        -0.03928        -0.00621        -0.28704
        -0.07967        -0.18426        -0.11868
         0.09052         0.05625        -0.03885
 BY DEFAULT, ONE QUANTUM OF ENERGY, EQUIVALENT TO  1375.710 CM(-1)
 WILL BE USED TO START THE DRC
 THIS REPRESENTS AN ENERGY OF   3.93 KCALS/MOLE

 TIME PRIORITY, INTERVAL = 0.50 FEMTOSECONDS



 FEMTOSECONDS  POINT  POTENTIAL + KINETIC  =   TOTAL     ERROR    REF%   MOVEMENT
     0.000       1    -8.78962    3.93248    -4.85714   0.00000     1   %  0.0000
     0.500       3    -8.71599    3.85885    -4.85714  -0.00000     2   %  0.0548
     1.000       3    -8.51410    3.65716    -4.85694   0.00019     3   %  0.1087
     1.500       8    -8.19991    3.34258    -4.85733  -0.00019     4   %  0.1605
     2.000      11    -7.79168    2.93425    -4.85743  -0.00029     5   %  0.2097
     2.500      13    -7.31768    2.46013    -4.85755  -0.00041     6   %  0.2552
     3.000      15    -6.81042    1.95270    -4.85772  -0.00057     7   %  0.2964
     3.500      16    -6.30472    1.44681    -4.85791  -0.00077     8   %  0.3324
     4.000      18    -5.83441    0.97631    -4.85810  -0.00095     9   %  0.3628
     4.500      20    -5.43259    0.57434    -4.85825  -0.00111    10   %  0.3870
     5.000      21    -5.12540    0.26705    -4.85834  -0.00120    11   %  0.4046
     5.500      22    -4.93369    0.07530    -4.85839  -0.00125    12   %  0.4153
     6.000      24    -4.86899    0.01204    -4.85695   0.00019    13   %  0.4189
     6.500      25    -4.93787    0.07788    -4.85999  -0.00285    14   %  0.4153
     7.000      26    -5.13152    0.27900    -4.85252   0.00462    15   %  0.4047
     7.500      27    -5.43965    0.58208    -4.85758  -0.00043    16   %  0.3871
     8.000      28    -5.83924    0.98481    -4.85443   0.00271    17   %  0.3629
     8.500      29    -6.30513    1.44867    -4.85646   0.00068    18   %  0.3326
     9.000      31    -6.80795    1.95202    -4.85593   0.00121    19   %  0.2966
     9.500      33    -7.31317    2.45689    -4.85628   0.00086    20   %  0.2555
    10.000      35    -7.78684    2.93035    -4.85649   0.00066    21   %  0.2101
    10.500      37    -8.19564    3.33900    -4.85664   0.00051    22   %  0.1611
    11.000      39    -8.51022    3.65345    -4.85677   0.00038    23   %  0.1095
    11.500      42    -8.70803    3.85117    -4.85686   0.00029    24   %  0.0563
    12.000      44    -8.77532    3.91839    -4.85694   0.00021    25   %  0.0213
    12.500      47    -8.70837    3.85136    -4.85701   0.00014    26   %  0.0566
    13.000      49    -8.51372    3.65665    -4.85708   0.00008    27   %  0.1091
    13.500      52    -8.20751    3.35037    -4.85714   0.00001    28   %  0.1606
    14.000      54    -7.81276    2.95554    -4.85722  -0.00006    29   %  0.2096
    14.500      56    -7.35811    2.50080    -4.85731  -0.00015    30   %  0.2551
    15.000      58    -6.87410    2.01669    -4.85741  -0.00025    31   %  0.2963
    15.500      60    -6.39154    1.53402    -4.85752  -0.00036    32   %  0.3327
    16.000      61    -5.93917    1.08153    -4.85763  -0.00047    33   %  0.3636
    16.500      63    -5.54307    0.68533    -4.85774  -0.00058    34   %  0.3886
    17.000      64    -5.22662    0.36877    -4.85784  -0.00068    35   %  0.4072
    17.500      66    -5.00882    0.15087    -4.85794  -0.00078    36   %  0.4192
    18.000      67    -4.90423    0.04633    -4.85790  -0.00074    37   %  0.4243
    18.500      68    -4.92360    0.06695    -4.85665   0.00051    38   %  0.4225
    19.000      69    -5.07066    0.21321    -4.85745  -0.00030    39   %  0.4136
    19.500      70    -5.33924    0.48375    -4.85549   0.00167    40   %  0.3979
    20.000      71    -5.71510    0.85992    -4.85518   0.00198    41   %  0.3755
    20.500      72    -6.17185    1.31729    -4.85456   0.00260    42   %  0.3468
    21.000      74    -6.67763    1.82145    -4.85618   0.00098    43   %  0.3123
    21.500      76    -7.19293    2.33632    -4.85662   0.00055    44   %  0.2728
    22.000      78    -7.67817    2.82131    -4.85686   0.00030    45   %  0.2288
    22.500      80    -8.09645    3.23944    -4.85701   0.00015    46   %  0.1814
    23.000      83    -8.41877    3.56167    -4.85710   0.00006    47   %  0.1316
    23.500      86    -8.62571    3.76854    -4.85716   0.00000    48   %  0.0811
    24.000      88    -8.70850    3.85129    -4.85721  -0.00005    49   %  0.0356



 **********************
 *                    *
 * JOB ENDED NORMALLY *
 *                    *
 **********************



 TOTAL JOB TIME:             0.20 SECONDS

 == MOPAC DONE ==
