 *******************************************************************************
 **                                                                           **
 **                              MOPAC v23.1.2                                **
 **                                                                           **
 *******************************************************************************
 **          Digital Object Identifier (DOI): 10.5281/zenodo.6511958          **
 **    Visit the DOI location for information on how to cite this program.    **
 *******************************************************************************

                              AM1 CALCULATION RESULTS

 *******************************************************************************
 *  CALCULATION DONE: (MAX THREADS = 16)             Tue Apr  8 14:50:53 2025  *
 *  AM1        - The AM1 Hamiltonian to be used
 *  RESIDUES   - DETERMINE THE SEQUENCE OF RESIDUES
 *  IRC=N      - INTRINSIC REACTION COORDINATE  4 DEFINED
 *  DRC        - DYNAMIC REACTION COORDINATE CALCULATION
 *  T=         - A TIME OF 172800.0 SECONDS REQUESTED
 *  DUMP=N     - RESTART FILE WRITTEN EVERY 7200.0 SECONDS REQUESTED
 *  BIGCYCLES  - DO 1 BIG STEPS
 *  HTML       - WRITE HTML SCRIPT TO GENERATE ANIMATION USING JSMOL
 *             - TO DISPLAY IN PDB FORMAT, ADD "PDBOUT"
 *  T-PRIOR    - TIME TAKES PRIORITY IN DRC
 *******************************************************************************
AM1 irc=4* DRC BIGCYCLES=1 html t-priority=0.5
 C:\Users\48796\PycharmProjects\pythonProject\sem4\Cezary\projekt\programming_project_WCh_2025\mopac_portal\media//3/molecule.out

   ATOM   CHEMICAL          X               Y               Z
  NUMBER   SYMBOL      (ANGSTROMS)     (ANGSTROMS)     (ANGSTROMS)
 
     1       C          1.08260000  *  -0.04967000  *  -0.02437000  *
     2       H          2.19428000  *  -0.04975000  *  -0.02443000  *
     3       H          0.71347000  *  -0.45640000  *  -0.99070000  *
     4       H          0.71361000  *   0.99052000  *   0.10672000  *
     5       H          0.71351000  *  -0.68402000  *   0.81043000  *
 


          CARTESIAN COORDINATES 

    NO.       ATOM           X           Y           Z

     1         C          1.0826     -0.0497     -0.0244
     2         H          2.1943     -0.0498     -0.0244
     3         H          0.7135     -0.4564     -0.9907
     4         H          0.7136      0.9905      0.1067
     5         H          0.7135     -0.6840      0.8104

  H: (AM1): M.J.S. DEWAR ET AL, J. AM. CHEM. SOC. 107 3902-3909 (1985)
  C: (AM1): M.J.S. DEWAR ET AL, J. AM. CHEM. SOC. 107 3902-3909 (1985)

           Empirical Formula: C H4  =     5 atoms



      MOLECULAR POINT GROUP   :   Td  


      RHF CALCULATION, NO. OF DOUBLY OCCUPIED LEVELS = 4



          HEAT OF FORMATION =      -8.789616 KCALS/MOLE


          GRADIENT NORM =   0.67819

          MOLECULAR WEIGHT =   16.04


          ESTIMATED TIME TO COMPLETE CALCULATION =        0.00 SECONDS

    FOR POINT-GROUP Td   THERE ARE  24 UNIQUE SYMMETRY FUNCTIONS.

 STEP:   1 TIME =     0.00 SECS, INTEGRAL =      0.00 TIME LEFT: 172800.00
 STEP:   2 TIME =     0.00 SECS, INTEGRAL =      0.00 TIME LEFT: 172800.00
 STEP:   3 TIME =     0.00 SECS, INTEGRAL =      0.00 TIME LEFT: 172800.00
 STEP:   4 TIME =     0.00 SECS, INTEGRAL =      0.01 TIME LEFT: 172799.99
 STEP:   5 TIME =     0.00 SECS, INTEGRAL =      0.01 TIME LEFT: 172799.99
 STEP:   6 TIME =     0.00 SECS, INTEGRAL =      0.01 TIME LEFT: 172799.99
 STEP:   7                       INTEGRAL =      0.01 TIME LEFT: 172799.99
 STEP:   8                       INTEGRAL =      0.01 TIME LEFT: 172799.99
 STEP:   9                       INTEGRAL =      0.01 TIME LEFT: 172799.99
 STEP:  10                       INTEGRAL =      0.01 TIME LEFT: 172799.99
 STEP:  11                       INTEGRAL =      0.01 TIME LEFT: 172799.99
 STEP:  12                       INTEGRAL =      0.01 TIME LEFT: 172799.99
 STEP:  13                       INTEGRAL =      0.01 TIME LEFT: 172799.99
 STEP:  14                       INTEGRAL =      0.01 TIME LEFT: 172799.99
 STEP:  15                       INTEGRAL =      0.01 TIME LEFT: 172799.99
           INITIAL VELOCITY IN DRC (Angstroms/Femtosecond)
        -0.00228        -0.01853        -0.06136
        -0.00122         0.08665         0.28663
         0.03928         0.00621         0.28704
         0.07967         0.18426         0.11868
        -0.09052        -0.05625         0.03885
 BY DEFAULT, ONE QUANTUM OF ENERGY, EQUIVALENT TO  1410.192 CM(-1)
 WILL BE USED TO START THE DRC
 THIS REPRESENTS AN ENERGY OF   4.03 KCALS/MOLE

 TIME PRIORITY, INTERVAL = 0.50 FEMTOSECONDS



 FEMTOSECONDS  POINT  POTENTIAL + KINETIC  =   TOTAL     ERROR    REF%   MOVEMENT
     0.000       1    -8.78959    4.03105    -4.75854   0.00000     1   %  0.0000
     0.500       2    -8.72073    3.98149    -4.73924   0.01930     2   %  0.0578
     1.000       2    -8.51461    3.73319    -4.78142  -0.02288     3   %  0.1147
     1.500       6    -8.19123    3.43194    -4.75929  -0.00075     4   %  0.1693
     2.000       7    -7.77035    3.01065    -4.75970  -0.00115     5   %  0.2211
     2.500       9    -7.28247    2.52230    -4.76018  -0.00163     6   %  0.2690
     3.000      10    -6.76119    2.00051    -4.76069  -0.00214     7   %  0.3124
     3.500      11    -6.24335    1.48216    -4.76119  -0.00264     8   %  0.3504
     4.000      12    -5.76336    1.00172    -4.76164  -0.00309     9   %  0.3824
     4.500      13    -5.35287    0.59087    -4.76200  -0.00345    10   %  0.4079
     5.000      14    -5.03859    0.27632    -4.76227  -0.00372    11   %  0.4265
     5.500      15    -4.84064    0.07812    -4.76252  -0.00397    12   %  0.4378
     6.000      16    -4.77144    0.00731    -4.76413  -0.00558    13   %  0.4418
     6.500      17    -4.83418    0.11470    -4.71948   0.03907    14   %  0.4385
     7.000      18    -5.05532    0.24224    -4.81309  -0.05454    15   %  0.4259
     7.500      19    -5.35791    0.63995    -4.71796   0.04059    16   %  0.4082
     8.000      20    -5.76956    1.04139    -4.72817   0.03038    17   %  0.3826
     8.500      21    -6.25712    1.45913    -4.79800  -0.03945    18   %  0.3499
     9.000      21    -6.76547    2.03099    -4.73449   0.02407    19   %  0.3126
     9.500      22    -7.28570    2.52753    -4.75817   0.00038    20   %  0.2693
    10.000      24    -7.77147    3.01601    -4.75546   0.00309    21   %  0.2216
    10.500      25    -8.19011    3.43335    -4.75676   0.00180    22   %  0.1704
    11.000      26    -8.51075    3.75344    -4.75731   0.00124    23   %  0.1168
    11.500      28    -8.71034    3.95254    -4.75780   0.00076    24   %  0.0620
    12.000      30    -8.77267    4.01450    -4.75818   0.00038    25   %  0.0274
    12.500      31    -8.69303    3.93455    -4.75849   0.00007    26   %  0.0643
    13.000      33    -8.47673    3.71794    -4.75879  -0.00023    27   %  0.1179
    13.500      34    -8.14064    3.38150    -4.75914  -0.00057    28   %  0.1711
    14.000      36    -7.70776    2.94825    -4.75951  -0.00095    29   %  0.2218
    14.500      37    -7.21163    2.45165    -4.75998  -0.00141    30   %  0.2686
    15.000      39    -6.68563    1.92514    -4.76048  -0.00192    31   %  0.3106
    15.500      40    -6.16684    1.40585    -4.76099  -0.00242    32   %  0.3472
    16.000      41    -5.69181    0.93035    -4.76146  -0.00289    33   %  0.3775
    16.500      42    -5.29281    0.53094    -4.76187  -0.00330    34   %  0.4010
    17.000      43    -4.99761    0.23537    -4.76224  -0.00367    35   %  0.4173
    17.500      44    -4.82788    0.06466    -4.76322  -0.00466    36   %  0.4261
    18.000      45    -4.79733    0.04203    -4.75529   0.00327    37   %  0.4272
    18.500      46    -4.91757    0.15259    -4.76498  -0.00642    38   %  0.4201
    19.000      47    -5.17411    0.42003    -4.75409   0.00448    39   %  0.4055
    19.500      48    -5.55176    0.80584    -4.74592   0.01265    40   %  0.3835
    20.000      48    -6.02808    1.26486    -4.76322  -0.00466    41   %  0.3541
    20.500      49    -6.56092    1.81485    -4.74607   0.01250    42   %  0.3185
    21.000      51    -7.11010    2.35280    -4.75730   0.00127    43   %  0.2771
    21.500      52    -7.63183    2.87480    -4.75703   0.00154    44   %  0.2307
    22.000      54    -8.08425    3.32664    -4.75760   0.00097    45   %  0.1803
    22.500      55    -8.43434    3.67634    -4.75800   0.00057    46   %  0.1271
    23.000      57    -8.65846    3.90014    -4.75831   0.00026    47   %  0.0724
    23.500      59    -8.74465    3.98609    -4.75856   0.00001    48   %  0.0249


           INITIAL VELOCITY IN DRC (Angstroms/Femtosecond)
         0.00228         0.01853         0.06136
         0.00122        -0.08665        -0.28663
        -0.03928        -0.00621        -0.28704
        -0.07967        -0.18426        -0.11868
         0.09052         0.05625        -0.03885
 BY DEFAULT, ONE QUANTUM OF ENERGY, EQUIVALENT TO  1410.192 CM(-1)
 WILL BE USED TO START THE DRC
 THIS REPRESENTS AN ENERGY OF   4.03 KCALS/MOLE

 TIME PRIORITY, INTERVAL = 0.50 FEMTOSECONDS



 FEMTOSECONDS  POINT  POTENTIAL + KINETIC  =   TOTAL     ERROR    REF%   MOVEMENT
     0.000       1    -8.78962    4.03105    -4.75857   0.00000     1   %  0.0000
     0.500       2    -8.71636    3.97734    -4.73901   0.01956     2   %  0.0578
     1.000       2    -8.50360    3.72228    -4.78132  -0.02275     3   %  0.1146
     1.500       6    -8.16913    3.41006    -4.75907  -0.00050     4   %  0.1691
     2.000       7    -7.73280    2.97329    -4.75951  -0.00093     5   %  0.2206
     2.500       9    -7.22610    2.46604    -4.76006  -0.00149     6   %  0.2682
     3.000      10    -6.68530    1.92461    -4.76069  -0.00211     7   %  0.3109
     3.500      11    -6.15129    1.38996    -4.76134  -0.00276     8   %  0.3480
     4.000      12    -5.66293    0.90099    -4.76194  -0.00336     9   %  0.3787
     4.500      13    -5.25608    0.49363    -4.76245  -0.00387    10   %  0.4025
     5.000      14    -4.96073    0.19787    -4.76286  -0.00428    11   %  0.4189
     5.500      15    -4.79861    0.03524    -4.76338  -0.00480    12   %  0.4278
     6.000      16    -4.78146    0.02243    -4.75903  -0.00045    13   %  0.4288
     6.500      17    -4.91733    0.16119    -4.75613   0.00244    14   %  0.4217
     7.000      18    -5.19113    0.43298    -4.75815   0.00043    15   %  0.4067
     7.500      19    -5.57966    0.82575    -4.75392   0.00466    16   %  0.3844
     8.000      20    -6.05302    1.30227    -4.75074   0.00783    17   %  0.3551
     8.500      21    -6.57629    1.82403    -4.75226   0.00632    18   %  0.3195
     9.000      22    -7.11700    2.36095    -4.75605   0.00253    19   %  0.2780
     9.500      23    -7.63081    2.87437    -4.75644   0.00214    20   %  0.2317
    10.000      24    -8.08176    3.32463    -4.75713   0.00145    21   %  0.1814
    10.500      26    -8.43864    3.68098    -4.75766   0.00092    22   %  0.1282
    11.000      28    -8.67441    3.91634    -4.75808   0.00051    23   %  0.0738
    11.500      29    -8.77365    4.01523    -4.75843   0.00016    24   %  0.0268
    12.000      31    -8.73024    3.97150    -4.75874  -0.00016    25   %  0.0528
    12.500      32    -8.54971    3.79065    -4.75906  -0.00047    26   %  0.1061
    13.000      34    -8.24632    3.48689    -4.75942  -0.00084    27   %  0.1600
    13.500      35    -7.84503    3.08520    -4.75983  -0.00124    28   %  0.2116
    14.000      37    -7.37388    2.61359    -4.76029  -0.00170    29   %  0.2598
    14.500      38    -6.86687    2.10612    -4.76076  -0.00216    30   %  0.3036
    15.000      39    -6.35842    1.59724    -4.76118  -0.00259    31   %  0.3423
    15.500      40    -5.88069    1.11914    -4.76155  -0.00296    32   %  0.3752
    16.000      41    -5.46301    0.70117    -4.76184  -0.00324    33   %  0.4018
    16.500      42    -5.13061    0.36855    -4.76206  -0.00347    34   %  0.4216
    17.000      43    -4.90382    0.14155    -4.76228  -0.00368    35   %  0.4345
    17.500      44    -4.79743    0.03433    -4.76310  -0.00451    36   %  0.4400
    18.000      45    -4.81975    0.07083    -4.74892   0.00967    37   %  0.4382
    18.500      46    -4.98134    0.21074    -4.77060  -0.01200    38   %  0.4285
    19.000      47    -5.25978    0.50365    -4.75612   0.00247    39   %  0.4118
    19.500      48    -5.64039    0.90684    -4.73355   0.02505    40   %  0.3883
    20.000      48    -6.11608    1.34980    -4.76628  -0.00769    41   %  0.3575
    20.500      49    -6.63324    1.88620    -4.74705   0.01155    42   %  0.3210
    21.000      50    -7.16200    2.40610    -4.75590   0.00270    43   %  0.2790
    21.500      52    -7.66365    2.90710    -4.75655   0.00205    44   %  0.2323
    22.000      53    -8.09982    3.34247    -4.75735   0.00125    45   %  0.1818
    22.500      55    -8.43857    3.68077    -4.75780   0.00080    46   %  0.1285
    23.000      57    -8.65683    3.89875    -4.75808   0.00052    47   %  0.0738
    23.500      58    -8.74183    3.98352    -4.75831   0.00029    48   %  0.0249



 **********************
 *                    *
 * JOB ENDED NORMALLY *
 *                    *
 **********************



 TOTAL JOB TIME:             0.16 SECONDS

 == MOPAC DONE ==
