 *******************************************************************************
 **                                                                           **
 **                              MOPAC v23.1.2                                **
 **                                                                           **
 *******************************************************************************
 **          Digital Object Identifier (DOI): 10.5281/zenodo.6511958          **
 **    Visit the DOI location for information on how to cite this program.    **
 *******************************************************************************

                              AM1 CALCULATION RESULTS

 *******************************************************************************
 *  CALCULATION DONE: (MAX THREADS = 16)             Tue Apr  8 14:50:37 2025  *
 *  AM1        - The AM1 Hamiltonian to be used
 *  RESIDUES   - DETERMINE THE SEQUENCE OF RESIDUES
 *  T=         - A TIME OF 172800.0 SECONDS REQUESTED
 *  DUMP=N     - RESTART FILE WRITTEN EVERY 7200.0 SECONDS REQUESTED
 *  HTML       - WRITE HTML SCRIPT TO READ PDB FILE USING JSMOL
 *******************************************************************************
AM1 html


   ATOM   CHEMICAL          X               Y               Z
  NUMBER   SYMBOL      (ANGSTROMS)     (ANGSTROMS)     (ANGSTROMS)
 
     1       C          1.08320000  *  -0.04980000  *  -0.02444000  *
     2       H          2.15320000  *  -0.04980000  *  -0.02444000  *
     3       H          0.72654000  *  -0.44081000  *  -0.95438000  *
     4       H          0.72653000  *   0.95106000  *   0.10192000  *
     5       H          0.72653000  *  -0.65966000  *   0.77916000  *
 


          CARTESIAN COORDINATES 

    NO.       ATOM           X           Y           Z

     1         C          1.0832     -0.0498     -0.0244
     2         H          2.1532     -0.0498     -0.0244
     3         H          0.7265     -0.4408     -0.9544
     4         H          0.7265      0.9511      0.1019
     5         H          0.7265     -0.6597      0.7792

  H: (AM1): M.J.S. DEWAR ET AL, J. AM. CHEM. SOC. 107 3902-3909 (1985)
  C: (AM1): M.J.S. DEWAR ET AL, J. AM. CHEM. SOC. 107 3902-3909 (1985)

           Empirical Formula: C H4  =     5 atoms



      MOLECULAR POINT GROUP   :   Td  


      RHF CALCULATION, NO. OF DOUBLY OCCUPIED LEVELS = 4


          Geometry optimization using EF

          DIAGONAL MATRIX USED AS START HESSIAN

 CYCLE:     1 TIME:   0.004 TIME LEFT:  2.00D  GRAD.:    80.942 HEAT: -5.524804
 CYCLE:     2 TIME:   0.000 TIME LEFT:  2.00D  GRAD.:    26.993 HEAT: -8.452353
 CYCLE:     3 TIME:   0.004 TIME LEFT:  2.00D  GRAD.:    31.093 HEAT: -8.500437
 CYCLE:     4 TIME:   0.000 TIME LEFT:  2.00D  GRAD.:    10.073 HEAT: -8.756006
 CYCLE:     5 TIME:   0.004 TIME LEFT:  2.00D  GRAD.:     8.704 HEAT: -8.763828
 CYCLE:     6 TIME:   0.000 TIME LEFT:  2.00D  GRAD.:     3.087 HEAT: -8.785103
 CYCLE:     7 TIME:   0.000 TIME LEFT:  2.00D  GRAD.:     2.441 HEAT: -8.787735
 CYCLE:     8 TIME:   0.004 TIME LEFT:  2.00D  GRAD.:     0.683 HEAT: -8.789590

     GRADIENT =  0.68274 IS LESS THAN CUTOFF =  1.00000



 -------------------------------------------------------------------------------
 AM1 html




     GEOMETRY OPTIMISED USING EIGENVECTOR FOLLOWING (EF).     
     SCF FIELD WAS ACHIEVED                                   


                              AM1 CALCULATION
                                                       MOPAC v23.1.2 Windows
                                                       Tue Apr  8 14:50:37 2025




          FINAL HEAT OF FORMATION =         -8.78959 KCAL/MOL =     -36.77564 KJ/MOL


          COSMO AREA              =         54.51 SQUARE ANGSTROMS
          COSMO VOLUME            =         36.93 CUBIC ANGSTROMS

          GRADIENT NORM           =          0.68274          =       0.30533 PER ATOM
          IONIZATION POTENTIAL    =         13.302484 EV
          HOMO LUMO ENERGIES (EV) =        -13.302  4.657
          NO. OF FILLED LEVELS    =          4
          MOLECULAR WEIGHT        =         16.0426         POINT GROUP:  Td  

          MOLECULAR DIMENSIONS (Angstroms)

            Atom       Atom       Distance
            H     5    H     4     1.81639
            H     3    H     2     1.81434
            H     4    H     2     1.28320


          SCF CALCULATIONS        =         12
 
          WALL-CLOCK TIME         =      0.023 SECONDS
          COMPUTATION TIME        =      0.094 SECONDS




   ATOM                 CHEMICAL                   X               Y               Z
  NUMBER                 SYMBOL               (ANGSTROMS)     (ANGSTROMS)     (ANGSTROMS)
 
     1       C(HETATM    1  C   HET A   1)    1.08259829  *  -0.04967489  *  -0.02436715  *
     2       H(HETATM    2 1H   HET A   1)    2.19428286  *  -0.04974560  *  -0.02442985  *
     3       H(HETATM    3 2H   HET A   1)    0.71347428  *  -0.45639960  *  -0.99070313  *
     4       H(HETATM    4 3H   HET A   1)    0.71360747  *   0.99052009  *   0.10671507  *
     5       H(HETATM    5 4H   HET A   1)    0.71351254  *  -0.68401678  *   0.81042642  *

                             CARTESIAN COORDINATES

   1    C        1.082598290    -0.049674890    -0.024367148
   2    H        2.194282865    -0.049745597    -0.024429852
   3    H        0.713474275    -0.456399602    -0.990703131
   4    H        0.713607468     0.990520090     0.106715069
   5    H        0.713512543    -0.684016781     0.810426424


           Empirical Formula: C H4  =     5 atoms



      MOLECULAR POINT GROUP   :   Td  


                  EIGENVALUES  
 -28.88521 -13.31430 -13.31017 -13.30248   4.65673   4.66171   4.66419   5.18393


              NET ATOMIC CHARGES AND DIPOLE CONTRIBUTIONS

  ATOM NO.                 TYPE                        CHARGE      No. of ELECS.   s-Pop       p-Pop       
    1          C(HETATM    1  C   HET A   1)          -0.265896        4.2659     1.23003     3.03586
    2          H(HETATM    2 1H   HET A   1)           0.066172        0.9338     0.93383
    3          H(HETATM    3 2H   HET A   1)           0.066520        0.9335     0.93348
    4          H(HETATM    4 3H   HET A   1)           0.066637        0.9334     0.93336
    5          H(HETATM    5 4H   HET A   1)           0.066567        0.9334     0.93343
 DIPOLE           X         Y         Z       TOTAL
 POINT-CHG.    -0.001     0.000     0.000     0.001
 HYBRID         0.001    -0.000    -0.000     0.002
 SUM            0.001    -0.000    -0.000     0.001


          ATOMIC ORBITAL ELECTRON POPULATIONS

                   Atom                  s        px        py        pz   
   C(HETATM    1  C   HET A   1)   1.23003   1.01212   1.01180   1.01194
   H(HETATM    2 1H   HET A   1)   0.93383
   H(HETATM    3 2H   HET A   1)   0.93348
   H(HETATM    4 3H   HET A   1)   0.93336
   H(HETATM    5 4H   HET A   1)   0.93343

 **********************
 *                    *
 * JOB ENDED NORMALLY *
 *                    *
 **********************



 TOTAL JOB TIME:             0.04 SECONDS

 == MOPAC DONE ==
