 *******************************************************************************
 **                                                                           **
 **                              MOPAC v23.1.2                                **
 **                                                                           **
 *******************************************************************************
 **          Digital Object Identifier (DOI): 10.5281/zenodo.6511958          **
 **    Visit the DOI location for information on how to cite this program.    **
 *******************************************************************************

                              AM1 CALCULATION RESULTS

 *******************************************************************************
 *  CALCULATION DONE: (MAX THREADS = 8)              Tue Apr  8 13:55:19 2025  *
 *  AM1        - The AM1 Hamiltonian to be used
 *  RESIDUES   - DETERMINE THE SEQUENCE OF RESIDUES
 *  T=         - A TIME OF 172800.0 SECONDS REQUESTED
 *  DUMP=N     - RESTART FILE WRITTEN EVERY 7200.0 SECONDS REQUESTED
 *  HTML       - WRITE HTML SCRIPT TO READ PDB FILE USING JSMOL
 *******************************************************************************
AM1 html


   ATOM   CHEMICAL          X               Y               Z
  NUMBER   SYMBOL      (ANGSTROMS)     (ANGSTROMS)     (ANGSTROMS)
 
     1       C          1.05074000  *   0.06657000  *  -0.05472000  *
     2       C          2.57074000  *   0.06657000  *  -0.05472000  *
     3       C          3.07740000  *   1.49084000  *   0.10389000  *
     4       C          4.59740000  *   1.49084000  *   0.10389000  *
     5       H          0.69408000  *  -0.93604000  *  -0.16637000  *
     6       H          0.69407000  *   0.66457000  *  -0.86717000  *
     7       H          0.69407000  *   0.47118000  *   0.86939000  *
     8       H          2.92741000  *  -0.33804000  *  -0.97883000  *
     9       H          2.92741000  *  -0.53143000  *   0.75774000  *
    10       H          2.72073000  *   1.89545000  *   1.02800000  *
    11       H          2.72073000  *   2.08884000  *  -0.70856000  *
    12       H          4.95406000  *   0.89284000  *   0.91635000  *
    13       H          4.95407000  *   2.49345000  *   0.21555000  *
    14       H          4.95407000  *   1.08623000  *  -0.82022000  *
 


          CARTESIAN COORDINATES 

    NO.       ATOM           X           Y           Z

     1         C          1.0507      0.0666     -0.0547
     2         C          2.5707      0.0666     -0.0547
     3         C          3.0774      1.4908      0.1039
     4         C          4.5974      1.4908      0.1039
     5         H          0.6941     -0.9360     -0.1664
     6         H          0.6941      0.6646     -0.8672
     7         H          0.6941      0.4712      0.8694
     8         H          2.9274     -0.3380     -0.9788
     9         H          2.9274     -0.5314      0.7577
    10         H          2.7207      1.8954      1.0280
    11         H          2.7207      2.0888     -0.7086
    12         H          4.9541      0.8928      0.9163
    13         H          4.9541      2.4935      0.2156
    14         H          4.9541      1.0862     -0.8202

  H: (AM1): M.J.S. DEWAR ET AL, J. AM. CHEM. SOC. 107 3902-3909 (1985)
  C: (AM1): M.J.S. DEWAR ET AL, J. AM. CHEM. SOC. 107 3902-3909 (1985)

           Empirical Formula: C4 H10  =    14 atoms



      MOLECULAR POINT GROUP   :   C2h 


      RHF CALCULATION, NO. OF DOUBLY OCCUPIED LEVELS = 13


          Geometry optimization using EF

          DIAGONAL MATRIX USED AS START HESSIAN

 CYCLE:     1 TIME:   0.004 TIME LEFT:  2.00D  GRAD.:   163.950 HEAT: -20.84973
 CYCLE:     2 TIME:   0.004 TIME LEFT:  2.00D  GRAD.:   138.578 HEAT: -25.63303
 CYCLE:     3 TIME:   0.000 TIME LEFT:  2.00D  GRAD.:   101.886 HEAT: -26.75713
 CYCLE:     4 TIME:   0.000 TIME LEFT:  2.00D  GRAD.:    54.145 HEAT: -29.96691
 CYCLE:     5 TIME:   0.008 TIME LEFT:  2.00D  GRAD.:    43.973 HEAT: -30.41640
 CYCLE:     6 TIME:   0.000 TIME LEFT:  2.00D  GRAD.:    37.705 HEAT: -30.58792
 CYCLE:     7 TIME:   0.004 TIME LEFT:  2.00D  GRAD.:    20.927 HEAT: -30.90812
 CYCLE:     8 TIME:   0.000 TIME LEFT:  2.00D  GRAD.:    15.522 HEAT: -30.98786
 CYCLE:     9 TIME:   0.004 TIME LEFT:  2.00D  GRAD.:    12.126 HEAT: -31.03838
 CYCLE:    10 TIME:   0.000 TIME LEFT:  2.00D  GRAD.:    11.534 HEAT: -31.06658
 CYCLE:    11 TIME:   0.004 TIME LEFT:  2.00D  GRAD.:     6.232 HEAT: -31.10795
 CYCLE:    12 TIME:   0.004 TIME LEFT:  2.00D  GRAD.:     6.343 HEAT: -31.12261
 CYCLE:    13 TIME:   0.000 TIME LEFT:  2.00D  GRAD.:     8.639 HEAT: -31.12570
 CYCLE:    14 TIME:   0.004 TIME LEFT:  2.00D  GRAD.:     4.978 HEAT: -31.14732
 CYCLE:    15 TIME:   0.000 TIME LEFT:  2.00D  GRAD.:     5.016 HEAT: -31.15292
 CYCLE:    16 TIME:   0.004 TIME LEFT:  2.00D  GRAD.:     2.793 HEAT: -31.16007
 CYCLE:    17 TIME:   0.004 TIME LEFT:  2.00D  GRAD.:     4.270 HEAT: -31.16109
 CYCLE:    18 TIME:   0.000 TIME LEFT:  2.00D  GRAD.:     1.500 HEAT: -31.16794
 CYCLE:    19 TIME:   0.004 TIME LEFT:  2.00D  GRAD.:     1.214 HEAT: -31.17181
 CYCLE:    20 TIME:   0.000 TIME LEFT:  2.00D  GRAD.:     1.564 HEAT: -31.17519
 CYCLE:    21 TIME:   0.000 TIME LEFT:  2.00D  GRAD.:     2.391 HEAT: -31.17526
 CYCLE:    22 TIME:   0.004 TIME LEFT:  2.00D  GRAD.:     0.666 HEAT: -31.17758

     GRADIENT =  0.66650 IS LESS THAN CUTOFF =  1.00000



 -------------------------------------------------------------------------------
 AM1 html




     GEOMETRY OPTIMISED USING EIGENVECTOR FOLLOWING (EF).     
     SCF FIELD WAS ACHIEVED                                   


                              AM1 CALCULATION
                                                       MOPAC v23.1.2 Windows
                                                       Tue Apr  8 13:55:19 2025




          FINAL HEAT OF FORMATION =        -31.17758 KCAL/MOL =    -130.44698 KJ/MOL


          COSMO AREA              =        116.07 SQUARE ANGSTROMS
          COSMO VOLUME            =        101.23 CUBIC ANGSTROMS

          GRADIENT NORM           =          0.66650          =       0.17813 PER ATOM
          IONIZATION POTENTIAL    =         11.174289 EV
          HOMO LUMO ENERGIES (EV) =        -11.174  3.831
          NO. OF FILLED LEVELS    =         13
          MOLECULAR WEIGHT        =         58.1230         POINT GROUP:  C2h 

          MOLECULAR DIMENSIONS (Angstroms)

            Atom       Atom       Distance
            H    13    H     5     5.58483
            H     6    H    12     3.04696
            H    14    H     7     2.91132


          SCF CALCULATIONS        =         28
 
          WALL-CLOCK TIME         =      0.062 SECONDS
          COMPUTATION TIME        =      0.250 SECONDS




   ATOM                 CHEMICAL                   X               Y               Z
  NUMBER                 SYMBOL               (ANGSTROMS)     (ANGSTROMS)     (ANGSTROMS)
 
     1       C(HETATM    1  C1  HET A   1)    1.04599147  *   0.06013240  *  -0.05544263  *
     2       C(HETATM    2  C2  HET A   1)    2.55260641  *   0.07628504  *  -0.05415146  *
     3       C(HETATM    3  C3  HET A   1)    3.09547021  *   1.48128928  *   0.10325346  *
     4       C(HETATM    4  C4  HET A   1)    4.60226948  *   1.49728475  *   0.10477221  *
     5       H(HETATM    5 1H1  HET A   1)    0.66746325  *  -0.98436787  *  -0.17053000  *
     6       H(HETATM    6 2H1  HET A   1)    0.64587734  *   0.67451259  *  -0.89810898  *
     7       H(HETATM    7 3H1  HET A   1)    0.64659451  *   0.47609110  *   0.90123407  *
     8       H(HETATM    8 1H2  HET A   1)    2.93522744  *  -0.36471494  *  -1.01248701  *
     9       H(HETATM    9 2H2  HET A   1)    2.93602092  *  -0.56624989  *   0.78206504  *
    10       H(HETATM   10 1H3  HET A   1)    2.71260806  *   1.92244718  *   1.06104654  *
    11       H(HETATM   11 2H3  HET A   1)    2.71232169  *   2.12331125  *  -0.73308546  *
    12       H(HETATM   12 1H4  HET A   1)    5.00201439  *   0.88200133  *   0.94669216  *
    13       H(HETATM   13 2H4  HET A   1)    4.98092193  *   2.54145169  *   0.22065726  *
    14       H(HETATM   14 3H4  HET A   1)    5.00145171  *   1.08197562  *  -0.85191979  *

                             CARTESIAN COORDINATES

   1    C        1.045991475     0.060132403    -0.055442629
   2    C        2.552606413     0.076285042    -0.054151455
   3    C        3.095470208     1.481289279     0.103253462
   4    C        4.602269483     1.497284746     0.104772211
   5    H        0.667463253    -0.984367875    -0.170529997
   6    H        0.645877339     0.674512593    -0.898108978
   7    H        0.646594505     0.476091100     0.901234073
   8    H        2.935227440    -0.364714942    -1.012487009
   9    H        2.936020919    -0.566249886     0.782065036
  10    H        2.712608058     1.922447178     1.061046536
  11    H        2.712321690     2.123311255    -0.733085463
  12    H        5.002014389     0.882001334     0.946692163
  13    H        4.980921932     2.541451694     0.220657259
  14    H        5.001451708     1.081975622    -0.851919794


           Empirical Formula: C4 H10  =    14 atoms



      MOLECULAR POINT GROUP   :   C2h 


                  EIGENVALUES  
 -36.26662 -30.77079 -24.36275 -21.51284 -16.18023 -14.72234 -14.57714 -13.91273
 -12.70663 -12.08477 -11.98608 -11.51932 -11.17429   3.83126   3.89020   4.30621
   4.35063   4.51577   4.75975   4.85861   4.88149   5.09492   5.13518   5.19485
   5.26692   5.35096


              NET ATOMIC CHARGES AND DIPOLE CONTRIBUTIONS

  ATOM NO.                 TYPE                        CHARGE      No. of ELECS.   s-Pop       p-Pop       
    1          C(HETATM    1  C1  HET A   1)          -0.210513        4.2105     1.22405     2.98646
    2          C(HETATM    2  C2  HET A   1)          -0.159079        4.1591     1.21586     2.94322
    3          C(HETATM    3  C3  HET A   1)          -0.159055        4.1591     1.21580     2.94325
    4          C(HETATM    4  C4  HET A   1)          -0.210482        4.2105     1.22398     2.98650
    5          H(HETATM    5 1H1  HET A   1)           0.071473        0.9285     0.92853
    6          H(HETATM    6 2H1  HET A   1)           0.071502        0.9285     0.92850
    7          H(HETATM    7 3H1  HET A   1)           0.071504        0.9285     0.92850
    8          H(HETATM    8 1H2  HET A   1)           0.077531        0.9225     0.92247
    9          H(HETATM    9 2H2  HET A   1)           0.077557        0.9224     0.92244
   10          H(HETATM   10 1H3  HET A   1)           0.077548        0.9225     0.92245
   11          H(HETATM   11 2H3  HET A   1)           0.077537        0.9225     0.92246
   12          H(HETATM   12 1H4  HET A   1)           0.071499        0.9285     0.92850
   13          H(HETATM   13 2H4  HET A   1)           0.071502        0.9285     0.92850
   14          H(HETATM   14 3H4  HET A   1)           0.071476        0.9285     0.92852
 DIPOLE           X         Y         Z       TOTAL
 POINT-CHG.     0.000     0.000     0.000     0.000
 HYBRID        -0.000    -0.000    -0.000     0.000
 SUM           -0.000    -0.000    -0.000     0.000


          ATOMIC ORBITAL ELECTRON POPULATIONS

                   Atom                  s        px        py        pz   
   C(HETATM    1  C1  HET A   1)   1.22405   0.95535   1.01460   1.01651
   C(HETATM    2  C2  HET A   1)   1.21586   0.95510   0.96817   1.01995
   C(HETATM    3  C3  HET A   1)   1.21580   0.95510   0.96817   1.01998
   C(HETATM    4  C4  HET A   1)   1.22398   0.95534   1.01460   1.01656
   H(HETATM    5 1H1  HET A   1)   0.92853
   H(HETATM    6 2H1  HET A   1)   0.92850
   H(HETATM    7 3H1  HET A   1)   0.92850
   H(HETATM    8 1H2  HET A   1)   0.92247
   H(HETATM    9 2H2  HET A   1)   0.92244
   H(HETATM   10 1H3  HET A   1)   0.92245
   H(HETATM   11 2H3  HET A   1)   0.92246
   H(HETATM   12 1H4  HET A   1)   0.92850
   H(HETATM   13 2H4  HET A   1)   0.92850
   H(HETATM   14 3H4  HET A   1)   0.92852

 **********************
 *                    *
 * JOB ENDED NORMALLY *
 *                    *
 **********************



 TOTAL JOB TIME:             0.07 SECONDS

 == MOPAC DONE ==
